# vtk DataFile Version 2.0
MATLAB generated vtk file, WMC
ASCII
DATASET UNSTRUCTURED_GRID
POINTS 34 double
0.000000 0.000000 0.000000 
3.125000 0.000000 0.000000 
0.000000 3.125000 0.000000 
3.125000 3.125000 0.000000 
0.000000 6.250000 0.000000 
3.125000 6.250000 0.000000 
0.000000 9.375000 0.000000 
3.125000 9.375000 0.000000 
0.000000 12.500000 0.000000 
3.125000 12.500000 0.000000 
0.000000 15.625000 0.000000 
3.125000 15.625000 0.000000 
0.000000 18.750000 0.000000 
3.125000 18.750000 0.000000 
0.000000 21.875000 0.000000 
3.125000 21.875000 0.000000 
0.000000 25.000000 0.000000 
3.125000 25.000000 0.000000 
0.000000 28.125000 0.000000 
3.125000 28.125000 0.000000 
0.000000 31.250000 0.000000 
3.125000 31.250000 0.000000 
0.000000 34.375000 0.000000 
3.125000 34.375000 0.000000 
0.000000 37.500000 0.000000 
3.125000 37.500000 0.000000 
0.000000 40.625000 0.000000 
3.125000 40.625000 0.000000 
0.000000 43.750000 0.000000 
3.125000 43.750000 0.000000 
0.000000 46.875000 0.000000 
3.125000 46.875000 0.000000 
0.000000 50.000000 0.000000 
3.125000 50.000000 0.000000 

CELLS 16 80
4 0 1 2 3
4 2 3 4 5
4 4 5 6 7
4 6 7 8 9
4 8 9 10 11
4 10 11 12 13
4 12 13 14 15
4 14 15 16 17
4 16 17 18 19
4 18 19 20 21
4 20 21 22 23
4 22 23 24 25
4 24 25 26 27
4 26 27 28 29
4 28 29 30 31
4 30 31 32 33

CELL_TYPES 16
8
8
8
8
8
8
8
8
8
8
8
8
8
8
8
8

POINT_DATA 34
SCALARS u_x FLOAT 1
LOOKUP_TABLE default
0.000000
0.000000
0.000000
0.000000
0.000000
0.000000
0.000000
0.000000
0.000000
0.000000
0.000000
0.000000
0.000000
0.000000
0.000000
0.000000
0.000000
0.000000
0.000000
0.000000
0.000000
0.000000
0.000000
0.000000
0.000000
0.000000
0.000000
0.000000
0.000000
0.000000
0.000000
0.000000
0.000000
0.000000

SCALARS u_y FLOAT 1
LOOKUP_TABLE default
0.000000
0.000000
0.000000
0.000000
0.000000
0.000000
0.000000
0.000000
0.000000
0.000000
0.000000
0.000000
0.000000
0.000000
0.000000
0.000000
0.000000
0.000000
0.000000
0.000000
0.000000
0.000000
0.000000
0.000000
0.000000
0.000000
0.000000
0.000000
0.000000
0.000000
0.000000
0.000000
0.000000
0.000000

VECTORS u_vector FLOAT
0.000000 0.000000 0.000000
0.000000 0.000000 0.000000
0.000000 0.000000 0.000000
0.000000 0.000000 0.000000
0.000000 0.000000 0.000000
0.000000 0.000000 0.000000
0.000000 0.000000 0.000000
0.000000 0.000000 0.000000
0.000000 0.000000 0.000000
0.000000 0.000000 0.000000
0.000000 0.000000 0.000000
0.000000 0.000000 0.000000
0.000000 0.000000 0.000000
0.000000 0.000000 0.000000
0.000000 0.000000 0.000000
0.000000 0.000000 0.000000
0.000000 0.000000 0.000000
0.000000 0.000000 0.000000
0.000000 0.000000 0.000000
0.000000 0.000000 0.000000
0.000000 0.000000 0.000000
0.000000 0.000000 0.000000
0.000000 0.000000 0.000000
0.000000 0.000000 0.000000
0.000000 0.000000 0.000000
0.000000 0.000000 0.000000
0.000000 0.000000 0.000000
0.000000 0.000000 0.000000
0.000000 0.000000 0.000000
0.000000 0.000000 0.000000
0.000000 0.000000 0.000000
0.000000 0.000000 0.000000
0.000000 0.000000 0.000000
0.000000 0.000000 0.000000

